10
Step 1
O 0.000567 -2.488958 -0.000378
C 0.000000 -0.164784 0.001134
C 2.420739 1.327344 -0.000378
C -2.421306 1.326399 -0.000378
H 2.509367 2.501053 -1.696974
H 2.505777 2.509934 1.690360
H 4.034754 0.037039 0.005102
H -4.034943 0.035338 0.005102
H -2.510312 2.500108 -1.696974
H -2.506911 2.509178 1.690360
10
Step 2
O 0.000567 -2.488958 -0.000378
C 0.000000 -0.164784 0.001134
C 2.420739 1.327344 -0.000378
C -2.421306 1.326399 -0.000378
H 2.509367 2.501053 -1.696974
H 2.505777 2.509934 1.690360
H 4.034754 0.037039 0.005102
H -4.034943 0.035338 0.005102
H -2.510312 2.500108 -1.696974
H -2.506911 2.509178 1.690360
10
Step 3
O 0.000550 -2.470029 -0.000273
C 0.000021 -0.183107 0.000841
C 2.427270 1.320672 -0.000160
C -2.427886 1.319715 -0.000133
H 2.510275 2.501215 -1.689332
H 2.506721 2.510070 1.682662
H 4.027469 0.043117 0.005037
H -4.027615 0.041462 0.005036
H -2.511224 2.500259 -1.689333
H -2.507848 2.509275 1.682631
10
Step 4
O 0.000550 -2.470029 -0.000273
C 0.000021 -0.183107 0.000841
C 2.427270 1.320672 -0.000160
C -2.427886 1.319715 -0.000133
H 2.510275 2.501215 -1.689332
H 2.506721 2.510070 1.682662
H 4.027469 0.043117 0.005037
H -4.027615 0.041462 0.005036
H -2.511224 2.500259 -1.689333
H -2.507848 2.509275 1.682631
10
Step 5
O 0.000539 -2.475191 -0.000199
C 0.000020 -0.175434 0.000635
C 2.428435 1.315856 -0.000066
C -2.429066 1.314895 -0.000030
H 2.511311 2.501226 -1.681689
H 2.507784 2.510091 1.675042
H 4.023718 0.046655 0.004989
H -4.023836 0.045033 0.004988
H -2.512268 2.500256 -1.681685
H -2.508905 2.509264 1.674990
10
Step 6
O 0.000539 -2.475191 -0.000199
C 0.000020 -0.175434 0.000635
C 2.428435 1.315856 -0.000066
C -2.429066 1.314895 -0.000030
H 2.511311 2.501226 -1.681689
H 2.507784 2.510091 1.675042
H 4.023718 0.046655 0.004989
H -4.023836 0.045033 0.004988
H -2.512268 2.500256 -1.681685
H -2.508905 2.509264 1.674990
10
Step 7
O 0.000521 -2.477311 -0.000091
C 0.000007 -0.172197 0.000395
C 2.424957 1.311950 -0.000046
C -2.425570 1.310992 -0.000018
H 2.513657 2.501794 -1.668903
H 2.510153 2.510710 1.662375
H 4.021229 0.048833 0.004925
H -4.021322 0.047246 0.004926
H -2.514629 2.500796 -1.668890
H -2.511269 2.509835 1.662304
10
Step 8
O 0.000521 -2.477311 -0.000091
C 0.000007 -0.172197 0.000395
C 2.424957 1.311950 -0.000046
C -2.425570 1.310992 -0.000018
H 2.513657 2.501794 -1.668903
H 2.510153 2.510710 1.662375
H 4.021229 0.048833 0.004925
H -4.021322 0.047246 0.004926
H -2.514629 2.500796 -1.668890
H -2.511269 2.509835 1.662304
10
Step 9
O 0.000503 -2.477615 -0.000022
C 0.000002 -0.173553 0.000303
C 2.421378 1.308970 -0.000061
C -2.421967 1.308011 -0.000047
H 2.515733 2.503830 -1.660515
H 2.512219 2.512768 1.654065
H 4.020770 0.048566 0.004881
H -4.020856 0.046996 0.004883
H -2.516721 2.502814 -1.660502
H -2.513329 2.511862 1.653993
10
Step 10
O 0.000503 -2.477615 -0.000022
C 0.000002 -0.173553 0.000303
C 2.421378 1.308970 -0.000061
C -2.421967 1.308011 -0.000047
H 2.515733 2.503830 -1.660515
H 2.512219 2.512768 1.654065
H 4.020770 0.048566 0.004881
H -4.020856 0.046996 0.004883
H -2.516721 2.502814 -1.660502
H -2.513329 2.511862 1.653993
10
Step 11
O 0.000490 -2.478529 0.000013
C 0.000005 -0.176185 0.000322
C 2.419928 1.307135 -0.000070
C -2.420500 1.306174 -0.000066
H 2.517112 2.506473 -1.656891
H 2.513562 2.515393 1.650454
H 4.021258 0.046917 0.004854
H -4.021345 0.045350 0.004857
H -2.518111 2.505452 -1.656887
H -2.514667 2.514470 1.650390
10
Step 12
O 0.000490 -2.478529 0.000013
C 0.000005 -0.176185 0.000322
C 2.419928 1.307135 -0.000070
C -2.420500 1.306174 -0.000066
H 2.517112 2.506473 -1.656891
H 2.513562 2.515393 1.650454
H 4.021258 0.046917 0.004854
H -4.021345 0.045350 0.004857
H -2.518111 2.505452 -1.656887
H -2.514667 2.514470 1.650390
10
Step 13
O 0.000476 -2.480864 0.000049
C 0.000012 -0.179502 0.000394
C 2.420044 1.305720 -0.000075
C -2.420605 1.304758 -0.000080
H 2.518499 2.510032 -1.654597
H 2.514890 2.518900 1.648144
H 4.022126 0.044102 0.004829
H -4.022215 0.042534 0.004830
H -2.519509 2.509008 -1.654610
H -2.515986 2.517962 1.648093
10
Step 14
O 0.000476 -2.480864 0.000049
C 0.000012 -0.179502 0.000394
C 2.420044 1.305720 -0.000075
C -2.420605 1.304758 -0.000080
H 2.518499 2.510032 -1.654597
H 2.514890 2.518900 1.648144
H 4.022126 0.044102 0.004829
H -4.022215 0.042534 0.004830
H -2.519509 2.509008 -1.654610
H -2.515986 2.517962 1.648093
10
Step 15
O 0.000469 -2.483246 0.000082
C 0.000015 -0.181422 0.000454
C 2.421535 1.305374 -0.000076
C -2.422095 1.304414 -0.000086
H 2.519360 2.512500 -1.654002
H 2.515704 2.521316 1.647525
H 4.022736 0.041720 0.004812
H -4.022824 0.040149 0.004813
H -2.520377 2.511476 -1.654029
H -2.516791 2.520368 1.647484
10
Step 16
O 0.000469 -2.483246 0.000082
C 0.000015 -0.181422 0.000454
C 2.421535 1.305374 -0.000076
C -2.422095 1.304414 -0.000086
H 2.519360 2.512500 -1.654002
H 2.515704 2.521316 1.647525
H 4.022736 0.041720 0.004812
H -4.022824 0.040149 0.004813
H -2.520377 2.511476 -1.654029
H -2.516791 2.520368 1.647484
10
Step 17
O 0.000468 -2.484224 0.000112
C 0.000014 -0.181591 0.000464
C 2.422880 1.305627 -0.000078
C -2.423445 1.304669 -0.000088
H 2.519734 2.513223 -1.654199
H 2.516059 2.522009 1.647714
H 4.022897 0.040627 0.004805
H -4.022981 0.039054 0.004804
H -2.520754 2.512200 -1.654232
H -2.517139 2.521056 1.647675
10
Step 18
O 0.000468 -2.484224 0.000112
C 0.000014 -0.181591 0.000464
C 2.422880 1.305627 -0.000078
C -2.423445 1.304669 -0.000088
H 2.519734 2.513223 -1.654199
H 2.516059 2.522009 1.647714
H 4.022897 0.040627 0.004805
H -4.022981 0.039054 0.004804
H -2.520754 2.512200 -1.654232
H -2.517139 2.521056 1.647675
10
Step 19
O 0.000468 -2.484177 0.000141
C 0.000010 -0.181152 0.000450
C 2.423548 1.305836 -0.000082
C -2.424117 1.304881 -0.000093
H 2.520026 2.513231 -1.654350
H 2.516345 2.522000 1.647869
H 4.022885 0.040175 0.004800
H -4.022966 0.038601 0.004798
H -2.521047 2.512208 -1.654385
H -2.517421 2.521044 1.647830
10
Step 20
O 0.000468 -2.484177 0.000141
C 0.000010 -0.181152 0.000450
C 2.423548 1.305836 -0.000082
C -2.424117 1.304881 -0.000093
H 2.520026 2.513231 -1.654350
H 2.516345 2.522000 1.647869
H 4.022885 0.040175 0.004800
H -4.022966 0.038601 0.004798
H -2.521047 2.512208 -1.654385
H -2.517421 2.521044 1.647830
10
Step 21
O 0.000467 -2.483554 0.000209
C 0.000005 -0.180147 0.000415
C 2.424476 1.306085 -0.000094
C -2.425051 1.305133 -0.000108
H 2.520803 2.513148 -1.654472
H 2.517111 2.521880 1.648002
H 4.022833 0.039317 0.004787
H -4.022907 0.037741 0.004783
H -2.521828 2.512126 -1.654508
H -2.518178 2.520919 1.647963
10
Step 22
O 0.000467 -2.483554 0.000209
C 0.000005 -0.180147 0.000415
C 2.424476 1.306085 -0.000094
C -2.425051 1.305133 -0.000108
H 2.520803 2.513148 -1.654472
H 2.517111 2.521880 1.648002
H 4.022833 0.039317 0.004787
H -4.022907 0.037741 0.004783
H -2.521828 2.512126 -1.654508
H -2.518178 2.520919 1.647963
10
Step 23
O 0.000464 -2.482058 0.000340
C -0.000002 -0.178378 0.000356
C 2.425754 1.306331 -0.000120
C -2.426336 1.305384 -0.000139
H 2.522488 2.513055 -1.654512
H 2.518771 2.521711 1.648067
H 4.022709 0.037704 0.004760
H -4.022773 0.036124 0.004752
H -2.523521 2.512035 -1.654555
H -2.519822 2.520741 1.648029
10
Step 24
O 0.000464 -2.482058 0.000340
C -0.000002 -0.178378 0.000356
C 2.425754 1.306331 -0.000120
C -2.426336 1.305384 -0.000139
H 2.522488 2.513055 -1.654512
H 2.518771 2.521711 1.648067
H 4.022709 0.037704 0.004760
H -4.022773 0.036124 0.004752
H -2.523521 2.512035 -1.654555
H -2.519822 2.520741 1.648029
10
Step 25
O 0.000456 -2.479188 0.000575
C -0.000010 -0.175484 0.000275
C 2.427489 1.306547 -0.000170
C -2.428078 1.305605 -0.000200
H 2.525782 2.513004 -1.654431
H 2.522017 2.521512 1.648024
H 4.022386 0.034863 0.004706
H -4.022439 0.033274 0.004691
H -2.526830 2.511987 -1.654482
H -2.523041 2.520528 1.647989
10
Step 26
O 0.000456 -2.479188 0.000575
C -0.000010 -0.175484 0.000275
C 2.427489 1.306547 -0.000170
C -2.428078 1.305605 -0.000200
H 2.525782 2.513004 -1.654431
H 2.522017 2.521512 1.648024
H 4.022386 0.034863 0.004706
H -4.022439 0.033274 0.004691
H -2.526830 2.511987 -1.654482
H -2.523041 2.520528 1.647989
10
Step 27
O 0.000445 -2.475914 0.000839
C -0.000013 -0.172582 0.000219
C 2.428870 1.306625 -0.000231
C -2.429459 1.305684 -0.000272
H 2.529876 2.513065 -1.654253
H 2.526050 2.521392 1.647884
H 4.021793 0.031765 0.004638
H -4.021840 0.030167 0.004616
H -2.530941 2.512054 -1.654315
H -2.527048 2.520394 1.647853
10
Step 28
O 0.000445 -2.475914 0.000839
C -0.000013 -0.172582 0.000219
C 2.428870 1.306625 -0.000231
C -2.429459 1.305684 -0.000272
H 2.529876 2.513065 -1.654253
H 2.526050 2.521392 1.647884
H 4.021793 0.031765 0.004638
H -4.021840 0.030167 0.004616
H -2.530941 2.512054 -1.654315
H -2.527048 2.520394 1.647853
10
Step 29
O 0.000436 -2.474021 0.001003
C -0.000008 -0.171158 0.000227
C 2.429245 1.306621 -0.000272
C -2.429827 1.305677 -0.000319
H 2.532854 2.513189 -1.654156
H 2.528989 2.521385 1.647801
H 4.021076 0.029998 0.004584
H -4.021125 0.028395 0.004559
H -2.533931 2.512182 -1.654222
H -2.529976 2.520381 1.647772
10
Step 30
O 0.000436 -2.474021 0.001003
C -0.000008 -0.171158 0.000227
C 2.429245 1.306621 -0.000272
C -2.429827 1.305677 -0.000319
H 2.532854 2.513189 -1.654156
H 2.528989 2.521385 1.647801
H 4.021076 0.029998 0.004584
H -4.021125 0.028395 0.004559
H -2.533931 2.512182 -1.654222
H -2.529976 2.520381 1.647772
10
Step 31
O 0.000432 -2.473440 0.001084
C -0.000000 -0.170855 0.000277
C 2.429060 1.306693 -0.000296
C -2.429632 1.305743 -0.000344
H 2.534758 2.513297 -1.654222
H 2.530877 2.521411 1.647866
H 4.020274 0.029352 0.004544
H -4.020329 0.027751 0.004519
H -2.535840 2.512291 -1.654286
H -2.531867 2.520408 1.647834
10
Step 32
O 0.000432 -2.473440 0.001084
C -0.000000 -0.170855 0.000277
C 2.429060 1.306693 -0.000296
C -2.429632 1.305743 -0.000344
H 2.534758 2.513297 -1.654222
H 2.530877 2.521411 1.647866
H 4.020274 0.029352 0.004544
H -4.020329 0.027751 0.004519
H -2.535840 2.512291 -1.654286
H -2.531867 2.520408 1.647834
10
Step 33
O 0.000434 -2.473720 0.001109
C 0.000005 -0.171077 0.000326
C 2.428843 1.306885 -0.000304
C -2.429409 1.305930 -0.000349
H 2.535658 2.513324 -1.654419
H 2.531785 2.521404 1.648058
H 4.019607 0.029389 0.004517
H -4.019667 0.027792 0.004493
H -2.536738 2.512318 -1.654477
H -2.532784 2.520404 1.648023
10
Step 34
O 0.000434 -2.473720 0.001109
C 0.000005 -0.171077 0.000326
C 2.428843 1.306885 -0.000304
C -2.429409 1.305930 -0.000349
H 2.535658 2.513324 -1.654419
H 2.531785 2.521404 1.648058
H 4.019607 0.029389 0.004517
H -4.019667 0.027792 0.004493
H -2.536738 2.512318 -1.654477
H -2.532784 2.520404 1.648023
10
Step 35
O 0.000438 -2.474106 0.001119
C 0.000006 -0.171227 0.000347
C 2.428863 1.307099 -0.000304
C -2.429429 1.306144 -0.000346
H 2.535988 2.513288 -1.654614
H 2.532136 2.521359 1.648254
H 4.019225 0.029521 0.004498
H -4.019285 0.027929 0.004476
H -2.537065 2.512279 -1.654667
H -2.533144 2.520364 1.648214
10
Step 36
O 0.000438 -2.474106 0.001119
C 0.000006 -0.171227 0.000347
C 2.428863 1.307099 -0.000304
C -2.429429 1.306144 -0.000346
H 2.535988 2.513288 -1.654614
H 2.532136 2.521359 1.648254
H 4.019225 0.029521 0.004498
H -4.019285 0.027929 0.004476
H -2.537065 2.512279 -1.654667
H -2.533144 2.520364 1.648214
10
Step 37
O 0.000441 -2.474194 0.001127
C 0.000004 -0.171172 0.000344
C 2.428996 1.307196 -0.000302
C -2.429564 1.306242 -0.000343
H 2.536060 2.513250 -1.654686
H 2.532228 2.521325 1.648331
H 4.019149 0.029510 0.004487
H -4.019208 0.027920 0.004466
H -2.537133 2.512241 -1.654736
H -2.533241 2.520331 1.648289
10
Step 38
O 0.000441 -2.474194 0.001127
C 0.000004 -0.171172 0.000344
C 2.428996 1.307196 -0.000302
C -2.429564 1.306242 -0.000343
H 2.536060 2.513250 -1.654686
H 2.532228 2.521325 1.648331
H 4.019149 0.029510 0.004487
H -4.019208 0.027920 0.004466
H -2.537133 2.512241 -1.654736
H -2.533241 2.520331 1.648289
